<?xml version="1.0" encoding="UTF-8"?>

<!-- generated on 2021-10-20 16:28:55 by Eclipse SUMO sumo Version 1.10.0
<configuration xmlns:xsi="http://www.w3.org/2001/XMLSchema-instance" xsi:noNamespaceSchemaLocation="http://sumo.dlr.de/xsd/sumoConfiguration.xsd">

    <input>
        <net-file value="network.net.xml"/>
        <route-files value="route.rou.xml"/>
    </input>

    <output>
        <netstate-dump value="netstate_outfile.xml"/>
        <fcd-output value="fcd_outfile.xml"/>
        <queue-output value="queue_outfile.xml"/>
        <vehroute-output value="vehroute_outfile.xml"/>
        <lanechange-output value="lanechange_outfile.xml"/>
        <statistic-output value="statistic_outfile.xml"/>
    </output>

    <time>
        <begin value="0"/>
        <end value="100"/>
    </time>

    <traci_server>
        <remote-port value="58315"/>
    </traci_server>

</configuration>
-->

<netstate xmlns:xsi="http://www.w3.org/2001/XMLSchema-instance" xsi:noNamespaceSchemaLocation="http://sumo.dlr.de/xsd/netstate_file.xsd">
    <timestep time="0.00"/>
    <timestep time="1.00">
        <edge id="gneE0">
            <lane id="gneE0_0">
                <vehicle id="v1" pos="2.10" speed="0.00"/>
            </lane>
            <lane id="gneE0_1"/>
            <lane id="gneE0_2"/>
            <lane id="gneE0_3"/>
        </edge>
    </timestep>
    <timestep time="2.00">
        <edge id="gneE0">
            <lane id="gneE0_0">
                <vehicle id="v1" pos="17.10" speed="15.00"/>
            </lane>
            <lane id="gneE0_1">
                <vehicle id="v2" pos="2.10" speed="0.00"/>
            </lane>
            <lane id="gneE0_2"/>
            <lane id="gneE0_3"/>
        </edge>
    </timestep>
    <timestep time="3.00">
        <edge id="gneE0">
            <lane id="gneE0_0">
                <vehicle id="v1" pos="32.10" speed="15.00"/>
            </lane>
            <lane id="gneE0_1">
                <vehicle id="v2" pos="3.10" speed="1.00"/>
            </lane>
            <lane id="gneE0_2">
                <vehicle id="v3" pos="2.10" speed="0.00"/>
            </lane>
            <lane id="gneE0_3"/>
        </edge>
    </timestep>
    <timestep time="4.00">
        <edge id="gneE0">
            <lane id="gneE0_0">
                <vehicle id="v1" pos="47.10" speed="15.00"/>
            </lane>
            <lane id="gneE0_1">
                <vehicle id="v2" pos="5.10" speed="2.00"/>
            </lane>
            <lane id="gneE0_2">
                <vehicle id="v3" pos="3.10" speed="1.00"/>
            </lane>
            <lane id="gneE0_3">
                <vehicle id="v4" pos="2.10" speed="0.00"/>
            </lane>
        </edge>
    </timestep>
    <timestep time="5.00">
        <edge id="gneE0">
            <lane id="gneE0_0">
                <vehicle id="v1" pos="62.10" speed="15.00"/>
            </lane>
            <lane id="gneE0_1">
                <vehicle id="v2" pos="8.10" speed="3.00"/>
            </lane>
            <lane id="gneE0_2">
                <vehicle id="v3" pos="5.10" speed="2.00"/>
            </lane>
            <lane id="gneE0_3">
                <vehicle id="v4" pos="3.10" speed="1.00"/>
            </lane>
        </edge>
    </timestep>
    <timestep time="6.00">
        <edge id="gneE0">
            <lane id="gneE0_0">
                <vehicle id="v1" pos="77.10" speed="15.00"/>
            </lane>
            <lane id="gneE0_1">
                <vehicle id="v2" pos="12.10" speed="4.00"/>
            </lane>
            <lane id="gneE0_2">
                <vehicle id="v3" pos="8.10" speed="3.00"/>
            </lane>
            <lane id="gneE0_3">
                <vehicle id="v4" pos="5.10" speed="2.00"/>
            </lane>
        </edge>
    </timestep>
    <timestep time="7.00">
        <edge id="gneE0">
            <lane id="gneE0_0">
                <vehicle id="v1" pos="92.10" speed="15.00"/>
            </lane>
            <lane id="gneE0_1">
                <vehicle id="v2" pos="17.10" speed="5.00"/>
            </lane>
            <lane id="gneE0_2">
                <vehicle id="v3" pos="12.10" speed="4.00"/>
            </lane>
            <lane id="gneE0_3">
                <vehicle id="v4" pos="8.10" speed="3.00"/>
            </lane>
        </edge>
    </timestep>
    <timestep time="8.00">
        <edge id="gneE0">
            <lane id="gneE0_0">
                <vehicle id="v2" pos="23.10" speed="6.00"/>
            </lane>
            <lane id="gneE0_1"/>
            <lane id="gneE0_2">
                <vehicle id="v3" pos="17.10" speed="5.00"/>
            </lane>
            <lane id="gneE0_3">
                <vehicle id="v4" pos="12.10" speed="4.00"/>
            </lane>
        </edge>
        <edge id="gneE1">
            <lane id="gneE1_0">
                <vehicle id="v1" pos="7.00" speed="15.00"/>
            </lane>
            <lane id="gneE1_1"/>
            <lane id="gneE1_2"/>
            <lane id="gneE1_3"/>
        </edge>
    </timestep>
    <timestep time="9.00">
        <edge id="gneE0">
            <lane id="gneE0_0">
                <vehicle id="v2" pos="30.10" speed="7.00"/>
            </lane>
            <lane id="gneE0_1"/>
            <lane id="gneE0_2">
                <vehicle id="v3" pos="23.10" speed="6.00"/>
            </lane>
            <lane id="gneE0_3">
                <vehicle id="v4" pos="17.10" speed="5.00"/>
            </lane>
        </edge>
        <edge id="gneE1">
            <lane id="gneE1_0">
                <vehicle id="v1" pos="22.00" speed="15.00"/>
            </lane>
            <lane id="gneE1_1"/>
            <lane id="gneE1_2"/>
            <lane id="gneE1_3"/>
        </edge>
    </timestep>
    <timestep time="10.00">
        <edge id="gneE0">
            <lane id="gneE0_0">
                <vehicle id="v2" pos="38.10" speed="8.00"/>
            </lane>
            <lane id="gneE0_1"/>
            <lane id="gneE0_2">
                <vehicle id="v3" pos="30.10" speed="7.00"/>
            </lane>
            <lane id="gneE0_3">
                <vehicle id="v4" pos="23.10" speed="6.00"/>
            </lane>
        </edge>
        <edge id="gneE1">
            <lane id="gneE1_0">
                <vehicle id="v1" pos="37.00" speed="15.00"/>
            </lane>
            <lane id="gneE1_1"/>
            <lane id="gneE1_2"/>
            <lane id="gneE1_3"/>
        </edge>
    </timestep>
    <timestep time="11.00">
        <edge id="gneE0">
            <lane id="gneE0_0">
                <vehicle id="v2" pos="47.10" speed="9.00"/>
            </lane>
            <lane id="gneE0_1"/>
            <lane id="gneE0_2">
                <vehicle id="v3" pos="38.10" speed="8.00"/>
            </lane>
            <lane id="gneE0_3">
                <vehicle id="v4" pos="30.10" speed="7.00"/>
            </lane>
        </edge>
        <edge id="gneE1">
            <lane id="gneE1_0">
                <vehicle id="v1" pos="52.00" speed="15.00"/>
            </lane>
            <lane id="gneE1_1"/>
            <lane id="gneE1_2"/>
            <lane id="gneE1_3"/>
        </edge>
    </timestep>
    <timestep time="12.00">
        <edge id="gneE0">
            <lane id="gneE0_0">
                <vehicle id="v2" pos="57.10" speed="10.00"/>
            </lane>
            <lane id="gneE0_1"/>
            <lane id="gneE0_2">
                <vehicle id="v3" pos="47.10" speed="9.00"/>
            </lane>
            <lane id="gneE0_3">
                <vehicle id="v4" pos="38.10" speed="8.00"/>
            </lane>
        </edge>
        <edge id="gneE1">
            <lane id="gneE1_0">
                <vehicle id="v1" pos="67.00" speed="15.00"/>
            </lane>
            <lane id="gneE1_1"/>
            <lane id="gneE1_2"/>
            <lane id="gneE1_3"/>
        </edge>
    </timestep>
    <timestep time="13.00">
        <edge id="gneE0">
            <lane id="gneE0_0">
                <vehicle id="v2" pos="68.10" speed="11.00"/>
            </lane>
            <lane id="gneE0_1">
                <vehicle id="v3" pos="57.10" speed="10.00"/>
            </lane>
            <lane id="gneE0_2"/>
            <lane id="gneE0_3">
                <vehicle id="v4" pos="47.10" speed="9.00"/>
            </lane>
        </edge>
        <edge id="gneE1">
            <lane id="gneE1_0">
                <vehicle id="v1" pos="82.00" speed="15.00"/>
            </lane>
            <lane id="gneE1_1"/>
            <lane id="gneE1_2"/>
            <lane id="gneE1_3"/>
        </edge>
    </timestep>
    <timestep time="14.00">
        <edge id="gneE0">
            <lane id="gneE0_0">
                <vehicle id="v2" pos="80.10" speed="12.00"/>
            </lane>
            <lane id="gneE0_1">
                <vehicle id="v3" pos="68.10" speed="11.00"/>
            </lane>
            <lane id="gneE0_2"/>
            <lane id="gneE0_3">
                <vehicle id="v4" pos="57.10" speed="10.00"/>
            </lane>
        </edge>
        <edge id="gneE1">
            <lane id="gneE1_0">
                <vehicle id="v1" pos="97.00" speed="15.00"/>
            </lane>
            <lane id="gneE1_1"/>
            <lane id="gneE1_2"/>
            <lane id="gneE1_3"/>
        </edge>
    </timestep>/>
            </lane>
        </edge>
        <edge id="gneE1">
            <lane id="gneE1_0">
                <vehicle id="v1" pos="21.72" speed="14.72"/>
            </lane>
            <lane id="gneE1_1">
                <vehicle id="v2" pos="6.03" speed="13.03"/>
            </lane>
            <lane id="gneE1_2"/>
            <lane id="gneE1_3"/>
        </edge>
    </timestep>
    <timestep time="17.00">
        <edge id="gneE0">
            <lane id="gneE0_0"/>
            <lane id="gneE0_1"/>
            <lane id="gneE0_2"/>
            <lane id="gneE0_3">
                <vehicle id="v4" pos="93.10" speed="13.00"/>
            </lane>
        </edge>
        <edge id="gneE1">
            <lane id="gneE1_0">
                <vehicle id="v1" pos="36.45" speed="14.72"/>
            </lane>
            <lane id="gneE1_1">
                <vehicle id="v2" pos="19.07" speed="13.03"/>
            </lane>
            <lane id="gneE1_2">
                <vehicle id="v3" pos="7.00" speed="14.00"/>
            </lane>
            <lane id="gneE1_3"/>
        </edge>
    </timestep>
    <timestep time="18.00">
        <edge id="gneE1">
            <lane id="gneE1_0">
                <vehicle id="v1" pos="51.17" speed="14.72"/>
            </lane>
            <lane id="gneE1_1">
                <vehicle id="v2" pos="32.10" speed="13.03"/>
            </lane>
            <lane id="gneE1_2">
                <vehicle id="v3" pos="21.03" speed="14.03"/>
            </lane>
            <lane id="gneE1_3">
                <vehicle id="v4" pos="7.00" speed="14.00"/>
            </lane>
        </edge>
    </timestep>
    <timestep time="19.00">
        <edge id="gneE1">
            <lane id="gneE1_0">
                <vehicle id="v1" pos="65.89" speed="14.72"/>
            </lane>
            <lane id="gneE1_1">
                <vehicle id="v2" pos="45.13" speed="13.03"/>
            </lane>
            <lane id="gneE1_2">
                <vehicle id="v3" pos="35.07" speed="14.03"/>
            </lane>
            <lane id="gneE1_3">
                <vehicle id="v4" pos="22.00" speed="15.00"/>
            </lane>
        </edge>
    </timestep>
    <timestep time="20.00">
        <edge id="gneE1">
            <lane id="gneE1_0">
                <vehicle id="v1" pos="80.62" speed="14.72"/>
            </lane>
            <lane id="gneE1_1">
                <vehicle id="v2" pos="58.17" speed="13.03"/>
            </lane>
            <lane id="gneE1_2">
                <vehicle id="v3" pos="49.10" speed="14.03"/>
            </lane>
            <lane id="gneE1_3">
                <vehicle id="v4" pos="37.04" speed="15.04"/>
            </lane>
        </edge>
    </timestep>
</netstate>
" speed="14.03"/>
            </lane>
            <lane id="gneE1_2"/>
            <lane id="gneE1_3">
                <vehicle id="v4" pos="7.00" speed="14.00"/>
            </lane>
        </edge>
        <edge id="gneE2">
            <lane id="gneE2_0">
                <vehicle id="v1" pos="56.90" speed="15.00"/>
            </lane>
            <lane id="gneE2_1"/>
            <lane id="gneE2_2"/>
            <lane id="gneE2_3"/>
        </edge>
    </timestep>
    <timestep time="19.00">
        <edge id="gneE1">
            <lane id="gneE1_0">
                <vehicle id="v2" pos="45.13" speed="13.03"/>
            </lane>
            <lane id="gneE1_1">
                <vehicle id="v3" pos="35.07" speed="14.03"/>
            </lane>
            <lane id="gneE1_2"/>
            <lane id="gneE1_3">
                <vehicle id="v4" pos="22.00" speed="15.00"/>
            </lane>
        </edge>
        <edge id="gneE2">
            <lane id="gneE2_0">
                <vehicle id="v1" pos="71.90" speed="15.00"/>
            </lane>
            <lane id="gneE2_1"/>
            <lane id="gneE2_2"/>
            <lane id="gneE2_3"/>
        </edge>
    </timestep>
    <timestep time="20.00">
        <edge id="gneE1">
            <lane id="gneE1_0">
                <vehicle id="v2" pos="58.17" speed="13.03"/>
            </lane>
            <lane id="gneE1_1">
                <vehicle id="v3" pos="49.10" speed="14.03"/>
            </lane>
            <lane id="gneE1_2"/>
            <lane id="gneE1_3">
                <vehicle id="v4" pos="37.04" speed="15.04"/>
            </lane>
        </edge>
        <edge id="gneE2">
            <lane id="gneE2_0">
                <vehicle id="v1" pos="86.90" speed="15.00"/>
            </lane>
            <lane id="gneE2_1"/>
            <lane id="gneE2_2"/>
            <lane id="gneE2_3"/>
        </edge>
    </timestep>
    <timestep time="21.00">
        <edge id="gneE1">
            <lane id="gneE1_0">
                <vehicle id="v2" pos="71.20" speed="13.03"/>
            </lane>
            <lane id="gneE1_1">
                <vehicle id="v3" pos="63.14" speed="14.03"/>
            </lane>
            <lane id="gneE1_2">
                <vehicle id="v4" pos="52.08" speed="15.04"/>
            </lane>
            <lane id="gneE1_3"/>
        </edge>
        <edge id="gneE3">
            <lane id="gneE3_0">
                <vehicle id="v1" pos="1.80" speed="15.00"/>
            </lane>
            <lane id="gneE3_1"/>
            <lane id="gneE3_2"/>
            <lane id="gneE3_3"/>
        </edge>
    </timestep>
    <timestep time="22.00">
        <edge id="gneE1">
            <lane id="gneE1_0">
                <vehicle id="v2" pos="84.23" speed="13.03"/>
            </lane>
            <lane id="gneE1_1">
                <vehicle id="v3" pos="77.17" speed="14.03"/>
            </lane>
            <lane id="gneE1_2">
                <vehicle id="v4" pos="67.11" speed="15.04"/>
            </lane>
            <lane id="gneE1_3"/>
        </edge>
        <edge id="gneE3">
            <lane id="gneE3_0">
                <vehicle id="v1" pos="16.80" speed="15.00"/>
            </lane>
            <lane id="gneE3_1"/>
            <lane id="gneE3_2"/>
            <lane id="gneE3_3"/>
        </edge>
    </timestep>
    <timestep time="23.00">
        <edge id="gneE1">
            <lane id="gneE1_0">
                <vehicle id="v2" pos="97.26" speed="13.03"/>
            </lane>
            <lane id="gneE1_1">
                <vehicle id="v3" pos="91.21" speed="14.03"/>
            </lane>
            <lane id="gneE1_2">
                <vehicle id="v4" pos="82.15" speed="15.04"/>
            </lane>
            <lane id="gneE1_3"/>
        </edge>
        <edge id="gneE3">
            <lane id="gneE3_0">
                <vehicle id="v1" pos="31.80" speed="15.00"/>
            </lane>
            <lane id="gneE3_1"/>
            <lane id="gneE3_2"/>
            <lane id="gneE3_3"/>
        </edge>
    </timestep>
    <timestep time="24.00">
        <edge id="gneE1">
            <lane id="gneE1_0"/>
            <lane id="gneE1_1"/>
            <lane id="gneE1_2">
                <vehicle id="v4" pos="97.19" speed="15.04"/>
            </lane>
            <lane id="gneE1_3"/>
        </edge>
        <edge id="gneE2">
            <lane id="gneE2_0">
                <vehicle id="v2" pos="10.20" speed="13.03"/>
            </lane>
            <lane id="gneE2_1">
                <vehicle id="v3" pos="5.14" speed="14.03"/>
            </lane>
            <lane id="gneE2_2"/>
            <lane id="gneE2_3"/>
        </edge>
        <edge id="gneE3">
            <lane id="gneE3_0">
                <vehicle id="v1" pos="46.80" speed="15.00"/>
            </lane>
            <lane id="gneE3_1"/>
            <lane id="gneE3_2"/>
            <lane id="gneE3_3"/>
        </edge>
    </timestep>
    <timestep time="25.00">
        <edge id="gneE2">
            <lane id="gneE2_0">
                <vehicle id="v2" pos="23.23" speed="13.03"/>
            </lane>
            <lane id="gneE2_1">
                <vehicle id="v3" pos="19.17" speed="14.03"/>
            </lane>
            <lane id="gneE2_2">
                <vehicle id="v4" pos="12.13" speed="15.04"/>
            </lane>
            <lane id="gneE2_3"/>
        </edge>
        <edge id="gneE3">
            <lane id="gneE3_0">
                <vehicle id="v1" pos="61.80" speed="15.00"/>
            </lane>
            <lane id="gneE3_1"/>
            <lane id="gneE3_2"/>
            <lane id="gneE3_3"/>
        </edge>
    </timestep>
    <timestep time="26.00">
        <edge id="gneE2">
            <lane id="gneE2_0">
                <vehicle id="v2" pos="36.26" speed="13.03"/>
            </lane>
            <lane id="gneE2_1">
                <vehicle id="v3" pos="33.21" speed="14.03"/>
            </lane>
            <lane id="gneE2_2">
                <vehicle id="v4" pos="27.17" speed="15.04"/>
            </lane>
            <lane id="gneE2_3"/>
        </edge>
        <edge id="gneE3">
            <lane id="gneE3_0">
                <vehicle id="v1" pos="76.80" speed="15.00"/>
            </lane>
            <lane id="gneE3_1"/>
            <lane id="gneE3_2"/>
            <lane id="gneE3_3"/>
        </edge>
    </timestep>
    <timestep time="27.00">
        <edge id="gneE2">
            <lane id="gneE2_0">
                <vehicle id="v2" pos="49.30" speed="13.03"/>
            </lane>
            <lane id="gneE2_1">
                <vehicle id="v3" pos="47.24" speed="14.03"/>
            </lane>
            <lane id="gneE2_2">
                <vehicle id="v4" pos="42.21" speed="15.04"/>
            </lane>
            <lane id="gneE2_3"/>
        </edge>
        <edge id="gneE3">
            <lane id="gneE3_0">
                <vehicle id="v1" pos="91.80" speed="15.00"/>
            </lane>
            <lane id="gneE3_1"/>
            <lane id="gneE3_2"/>
            <lane id="gneE3_3"/>
        </edge>
    </timestep>
    <timestep time="28.00">
        <edge id="gneE2">
            <lane id="gneE2_0">
                <vehicle id="v2" pos="62.33" speed="13.03"/>
            </lane>
            <lane id="gneE2_1">
                <vehicle id="v3" pos="61.28" speed="14.03"/>
            </lane>
            <lane id="gneE2_2">
                <vehicle id="v4" pos="57.24" speed="15.04"/>
            </lane>
            <lane id="gneE2_3"/>
        </edge>
        <edge id="gneE4">
            <lane id="gneE4_0">
                <vehicle id="v1" pos="6.70" speed="15.00"/>
            </lane>
            <lane id="gneE4_1"/>
            <lane id="gneE4_2"/>
            <lane id="gneE4_3"/>
        </edge>
    </timestep>
    <timestep time="29.00">
        <edge id="gneE2">
            <lane id="gneE2_0">
                <vehicle id="v2" pos="75.36" speed="13.03"/>
            </lane>
            <lane id="gneE2_1">
                <vehicle id="v3" pos="75.31" speed="14.03"/>
            </lane>
            <lane id="gneE2_2">
                <vehicle id="v4" pos="72.28" speed="15.04"/>
            </lane>
            <lane id="gneE2_3"/>
        </edge>
        <edge id="gneE4">
            <lane id="gneE4_0">
                <vehicle id="v1" pos="21.70" speed="15.00"/>
            </lane>
            <lane id="gneE4_1"/>
            <lane id="gneE4_2"/>
            <lane id="gneE4_3"/>
        </edge>
    </timestep>
    <timestep time="30.00">
        <edge id="gneE2">
            <lane id="gneE2_0">
                <vehicle id="v2" pos="88.40" speed="13.03"/>
            </lane>
            <lane id="gneE2_1">
                <vehicle id="v3" pos="89.35" speed="14.03"/>
            </lane>
            <lane id="gneE2_2">
                <vehicle id="v4" pos="87.32" speed="15.04"/>
            </lane>
            <lane id="gneE2_3"/>
        </edge>
        <edge id="gneE4">
            <lane id="gneE4_0">
                <vehicle id="v1" pos="36.70" speed="15.00"/>
            </lane>
            <lane id="gneE4_1"/>
            <lane id="gneE4_2"/>
            <lane id="gneE4_3"/>
        </edge>
    </timestep>
    <timestep time="31.00">
        <edge id="gneE3">
            <lane id="gneE3_0">
                <vehicle id="v2" pos="1.33" speed="13.03"/>
            </lane>
            <lane id="gneE3_1">
                <vehicle id="v3" pos="3.28" speed="14.03"/>
            </lane>
            <lane id="gneE3_2">
                <vehicle id="v4" pos="2.26" speed="15.04"/>
            </lane>
            <lane id="gneE3_3"/>
        </edge>
        <edge id="gneE4">
            <lane id="gneE4_0">
                <vehicle id="v1" pos="51.70" speed="15.00"/>
            </lane>
            <lane id="gneE4_1"/>
            <lane id="gneE4_2"/>
            <lane id="gneE4_3"/>
        </edge>
    </timestep>
    <timestep time="32.00">
        <edge id="gneE3">
            <lane id="gneE3_0">
                <vehicle id="v2" pos="14.36" speed="13.03"/>
            </lane>
            <lane id="gneE3_1">
                <vehicle id="v3" pos="17.32" speed="14.03"/>
            </lane>
            <lane id="gneE3_2">
                <vehicle id="v4" pos="17.30" speed="15.04"/>
            </lane>
            <lane id="gneE3_3"/>
        </edge>
        <edge id="gneE4">
            <lane id="gneE4_0">
                <vehicle id="v1" pos="66.70" speed="15.00"/>
            </lane>
            <lane id="gneE4_1"/>
            <lane id="gneE4_2"/>
            <lane id="gneE4_3"/>
        </edge>
    </timestep>
    <timestep time="33.00">
        <edge id="gneE3">
            <lane id="gneE3_0">
                <vehicle id="v2" pos="27.40" speed="13.03"/>
            </lane>
            <lane id="gneE3_1">
                <vehicle id="v3" pos="31.35" speed="14.03"/>
            </lane>
            <lane id="gneE3_2">
                <vehicle id="v4" pos="32.34" speed="15.04"/>
            </lane>
            <lane id="gneE3_3"/>
        </edge>
        <edge id="gneE4">
            <lane id="gneE4_0">
                <vehicle id="v1" pos="81.70" speed="15.00"/>
            </lane>
            <lane id="gneE4_1"/>
            <lane id="gneE4_2"/>
            <lane id="gneE4_3"/>
        </edge>
    </timestep>
    <timestep time="34.00">
        <edge id="gneE3">
            <lane id="gneE3_0">
                <vehicle id="v2" pos="40.43" speed="13.03"/>
            </lane>
            <lane id="gneE3_1">
                <vehicle id="v3" pos="45.38" speed="14.03"/>
            </lane>
            <lane id="gneE3_2">
                <vehicle id="v4" pos="47.37" speed="15.04"/>
            </lane>
            <lane id="gneE3_3"/>
        </edge>
        <edge id="gneE4">
            <lane id="gneE4_0">
                <vehicle id="v1" pos="96.70" speed="15.00"/>
            </lane>
            <lane id="gneE4_1"/>
            <lane id="gneE4_2"/>
            <lane id="gneE4_3"/>
        </edge>
    </timestep>
    <timestep time="35.00">
        <edge id="gneE3">
            <lane id="gneE3_0">
                <vehicle id="v2" pos="53.46" speed="13.03"/>
            </lane>
            <lane id="gneE3_1">
                <vehicle id="v3" pos="59.42" speed="14.03"/>
            </lane>
            <lane id="gneE3_2">
                <vehicle id="v4" pos="62.41" speed="15.04"/>
            </lane>
            <lane id="gneE3_3"/>
        </edge>
        <edge id="gneE5">
            <lane id="gneE5_0">
                <vehicle id="v1" pos="11.60" speed="15.00"/>
            </lane>
            <lane id="gneE5_1"/>
            <lane id="gneE5_2"/>
            <lane id="gneE5_3"/>
        </edge>
    </timestep>
    <timestep time="36.00">
        <edge id="gneE3">
            <lane id="gneE3_0">
                <vehicle id="v2" pos="66.49" speed="13.03"/>
            </lane>
            <lane id="gneE3_1">
                <vehicle id="v3" pos="73.45" speed="14.03"/>
            </lane>
            <lane id="gneE3_2">
                <vehicle id="v4" pos="77.45" speed="15.04"/>
            </lane>
            <lane id="gneE3_3"/>
        </edge>
        <edge id="gneE5">
            <lane id="gneE5_0">
                <vehicle id="v1" pos="26.60" speed="15.00"/>
            </lane>
            <lane id="gneE5_1"/>
            <lane id="gneE5_2"/>
            <lane id="gneE5_3"/>
        </edge>
    </timestep>
    <timestep time="37.00">
        <edge id="gneE3">
            <lane id="gneE3_0">
                <vehicle id="v2" pos="79.53" speed="13.03"/>
            </lane>
            <lane id="gneE3_1">
                <vehicle id="v3" pos="87.49" speed="14.03"/>
            </lane>
            <lane id="gneE3_2">
                <vehicle id="v4" pos="92.49" speed="15.04"/>
            </lane>
            <lane id="gneE3_3"/>
        </edge>
        <edge id="gneE5">
            <lane id="gneE5_0">
                <vehicle id="v1" pos="41.60" speed="15.00"/>
            </lane>
            <lane id="gneE5_1"/>
            <lane id="gneE5_2"/>
            <lane id="gneE5_3"/>
        </edge>
    </timestep>
    <timestep time="38.00">
        <edge id="gneE3">
            <lane id="gneE3_0">
                <vehicle id="v2" pos="92.56" speed="13.03"/>
            </lane>
            <lane id="gneE3_1"/>
            <lane id="gneE3_2"/>
            <lane id="gneE3_3"/>
        </edge>
        <edge id="gneE4">
            <lane id="gneE4_0"/>
            <lane id="gneE4_1">
                <vehicle id="v3" pos="1.42" speed="14.03"/>
            </lane>
            <lane id="gneE4_2">
                <vehicle id="v4" pos="7.43" speed="15.04"/>
            </lane>
            <lane id="gneE4_3"/>
        </edge>
        <edge id="gneE5">
            <lane id="gneE5_0">
                <vehicle id="v1" pos="56.60" speed="15.00"/>
            </lane>
            <lane id="gneE5_1"/>
            <lane id="gneE5_2"/>
            <lane id="gneE5_3"/>
        </edge>
    </timestep>
    <timestep time="39.00">
        <edge id="gneE4">
            <lane id="gneE4_0">
                <vehicle id="v2" pos="5.49" speed="13.03"/>
            </lane>
            <lane id="gneE4_1">
                <vehicle id="v3" pos="15.46" speed="14.03"/>
            </lane>
            <lane id="gneE4_2">
                <vehicle id="v4" pos="22.46" speed="15.04"/>
            </lane>
            <lane id="gneE4_3"/>
        </edge>
        <edge id="gneE5">
            <lane id="gneE5_0">
                <vehicle id="v1" pos="71.60" speed="15.00"/>
            </lane>
            <lane id="gneE5_1"/>
            <lane id="gneE5_2"/>
            <lane id="gneE5_3"/>
        </edge>
    </timestep>
    <timestep time="40.00">
        <edge id="gneE4">
            <lane id="gneE4_0">
                <vehicle id="v2" pos="18.53" speed="13.03"/>
            </lane>
            <lane id="gneE4_1">
                <vehicle id="v3" pos="29.49" speed="14.03"/>
            </lane>
            <lane id="gneE4_2">
                <vehicle id="v4" pos="37.50" speed="15.04"/>
            </lane>
            <lane id="gneE4_3"/>
        </edge>
        <edge id="gneE5">
            <lane id="gneE5_0">
                <vehicle id="v1" pos="86.60" speed="15.00"/>
            </lane>
            <lane id="gneE5_1"/>
            <lane id="gneE5_2"/>
            <lane id="gneE5_3"/>
        </edge>
    </timestep>
    <timestep time="41.00">
        <edge id="gneE4">
            <lane id="gneE4_0">
                <vehicle id="v2" pos="31.56" speed="13.03"/>
            </lane>
            <lane id="gneE4_1">
                <vehicle id="v3" pos="43.52" speed="14.03"/>
            </lane>
            <lane id="gneE4_2">
                <vehicle id="v4" pos="52.54" speed="15.04"/>
            </lane>
            <lane id="gneE4_3"/>
        </edge>
        <edge id="gneE6">
            <lane id="gneE6_0">
                <vehicle id="v1" pos="1.50" speed="15.00"/>
            </lane>
            <lane id="gneE6_1"/>